SPECGRID
--	X	Y	Z
	3	1	2	1	F
/

COORD
--	 SX		SY		   SZ		 EX		EY		   EZ
	  0		 0		1000.00		  0		 0		1020.02
	 50		 0		1000.01		 50		 0		1020.05
	100		 0		1000.02		100		 0		1020.08
	150		 0		1000.03		150		 0		1020.11
	  0		50		1000.00		  0		50		1020.02
	 50		50		1000.01		 50		50		1020.05
	100		50		1000.02		100		50		1020.08
	150		50		1000.03		150		50		1020.11
/

ZCORN
--	  X=0		   50		   50		  100		  100		  150
	1000.00		1000.01		1000.01		1000.02		1000.02		1000.03
	1000.00		1000.01		1000.01		1000.02		1000.02		1000.03
	1010.01		1010.03		1010.03		1010.05		1010.05		1010.07
	1010.01		1010.03		1010.03		1010.05		1010.05		1010.07
	1010.01		1010.03		1010.03		1010.05		1010.05		1010.07
	1010.01		1010.03		1010.03		1010.05		1010.05		1010.07
	1020.02		1020.05		1020.05		1020.08		1020.08		1020.11
	1020.02		1020.05		1020.05		1020.08		1020.08		1020.11
/

ACTNUM
--	(0,0)	(1,0)	(2,0)	(1,0)	(1,1)	(2,1)
	 1		  1		  1		  1		  1		  1
/

PORO
--	(0,0)	(1,0)	(2,0)	(1,0)	(1,1)	(2,1)
	0.32	0.33	0.34	0.35	0.36	0.37
/

PERMX
--	(0,0)	(1,0)	(2,0)	(1,0)	(1,1)	(2,1)
	201		200		109		202		108		200
/

PERMY
--	(0,0)	(1,0)	(2,0)	(1,0)	(1,1)	(2,1)
	200		109		201		108		200		202
/

PERMZ
--	(0,0)	(1,0)	(2,0)	(1,0)	(1,1)	(2,1)
	100		100		100		100		100		100
/
