SPECGRID
--	X	Y	Z
	3	1	2	1	F
/

COORD
--	 SX		SY		 SZ		 EX		EY		 EZ
	  0		 0		00.00	  0		 0		20.02
	 50		 0		00.01	 50		 0		20.05
	100		 0		00.02	100		 0		20.08
	150		 0		00.03	150		 0		20.11
	  0		50		00.00	  0		50		20.02
	 50		50		00.01	 50		50		20.05
	100		50		00.02	100		50		20.08
	150		50		00.03	150		50		20.11
/

ZCORN
--	 X=0	 50		 50		 100	 100	 150
	00.00	00.01	00.01	00.02	00.02	00.03
	00.00	00.01	00.01	00.02	00.02	00.03
	10.01	10.03	10.03	10.05	10.05	10.07
	10.01	10.03	10.03	10.05	10.05	10.07
	10.01	10.03	10.03	10.05	10.05	10.07
	10.01	10.03	10.03	10.05	10.05	10.07
	20.02	20.05	20.05	20.08	20.08	20.11
	20.02	20.05	20.05	20.08	20.08	20.11
/

ACTNUM
--	(0,0)	(1,0)	(2,0)	(1,0)	(1,1)	(2,1)
	1		1		1		1		1		1
/

PORO
--	(0,0)	(1,0)	(2,0)	(1,0)	(1,1)	(2,1)
	0.32	0.33	0.34	0.35	0.36	0.37
/

PERMX
--	(0,0)	(1,0)	(2,0)	(1,0)	(1,1)	(2,1)
	2.1		2.0		1.9		2.2		1.8		2.0
/

PERMY
--	(0,0)	(1,0)	(2,0)	(1,0)	(1,1)	(2,1)
	2.0		1.9		2.1		1.8		2.0		2.2
/

PERMZ
--	(0,0)	(1,0)	(2,0)	(1,0)	(1,1)	(2,1)
	1		1		1		1		1		1
/
