SPECGRID
--	X	Y	Z
	3	1	2	1	F
/

COORD
--	SX	SY	SZ		EX	EY	EZ
	0	0	0.00	0	0	2.02
	1	0	0.01	1	0	2.05
	2	0	0.02	2	0	2.08
	3	0	0.03	3	0	2.11
	0	1	0.00	0	1	2.02
	1	1	0.01	1	1	2.05
	2	1	0.02	2	1	2.08
	3	1	0.03	3	1	2.11
/

ZCORN
--	X=0		1		1		2		2		3
	0.00	0.01	0.01	0.02	0.02	0.03
	0.00	0.01	0.01	0.02	0.02	0.03
	1.01	1.03	1.03	1.05	1.05	1.07
	1.01	1.03	1.03	1.05	1.05	1.07
	1.01	1.03	1.03	1.05	1.05	1.07
	1.01	1.03	1.03	1.05	1.05	1.07
	2.02	2.05	2.05	2.08	2.08	2.11
	2.02	2.05	2.05	2.08	2.08	2.11
/

ACTNUM
--	(0,0)	(1,0)	(2,0)	(1,0)	(1,1)	(2,1)
	1		1		1		1		1		1
/

PORO
--	(0,0)	(1,0)	(2,0)	(1,0)	(1,1)	(2,1)
	0.32	0.33	0.34	0.35	0.36	0.37
/

PERMX
--	(0,0)	(1,0)	(2,0)	(1,0)	(1,1)	(2,1)
	2.1		2.0		1.9		2.2		1.8		2.0
/

PERMY
--	(0,0)	(1,0)	(2,0)	(1,0)	(1,1)	(2,1)
	2.0		1.9		2.1		1.8		2.0		2.2
/

PERMZ
--	(0,0)	(1,0)	(2,0)	(1,0)	(1,1)	(2,1)
	1		1		1		1		1		1
/
